file 9279079 1477322152                                         
version 2
run General-0-20161024-23:15:47-3318
attr configname General
attr datetime 20161024-23:15:47
attr experiment General
attr inifile omnetpp.ini
attr iterationvars ""
attr iterationvars2 $repetition=0
attr measurement ""
attr network PacketBounce
attr processid 3318
attr repetition 0
attr replication #0
attr resultdir results
attr runnumber 0
attr seedset 0

vector 14  PacketBounce.etherSwitch1.eth[0].queue.pauseQueue  queueLength:vector  ETV
attr interpolationmode  sample-hold
attr title  "queue length, vector"
vector 18  PacketBounce.etherSwitch1.eth[0].queue.passBackQueue  queueLength:vector  ETV
attr interpolationmode  sample-hold
attr title  "queue length, vector"
vector 22  PacketBounce.etherSwitch1.eth[0].queue.dataQueue  queueLength:vector  ETV
attr interpolationmode  sample-hold
attr title  "queue length, vector"
vector 37  PacketBounce.etherSwitch1.eth[1].queue.pauseQueue  queueLength:vector  ETV
attr interpolationmode  sample-hold
attr title  "queue length, vector"
vector 41  PacketBounce.etherSwitch1.eth[1].queue.passBackQueue  queueLength:vector  ETV
attr interpolationmode  sample-hold
attr title  "queue length, vector"
vector 45  PacketBounce.etherSwitch1.eth[1].queue.dataQueue  queueLength:vector  ETV
attr interpolationmode  sample-hold
attr title  "queue length, vector"
vector 60  PacketBounce.etherSwitch2.eth[0].queue.pauseQueue  queueLength:vector  ETV
attr interpolationmode  sample-hold
attr title  "queue length, vector"
vector 64  PacketBounce.etherSwitch2.eth[0].queue.passBackQueue  queueLength:vector  ETV
attr interpolationmode  sample-hold
attr title  "queue length, vector"
vector 68  PacketBounce.etherSwitch2.eth[0].queue.dataQueue  queueLength:vector  ETV
attr interpolationmode  sample-hold
attr title  "queue length, vector"
vector 83  PacketBounce.etherSwitch2.eth[1].queue.pauseQueue  queueLength:vector  ETV
attr interpolationmode  sample-hold
attr title  "queue length, vector"
vector 87  PacketBounce.etherSwitch2.eth[1].queue.passBackQueue  queueLength:vector  ETV
attr interpolationmode  sample-hold
attr title  "queue length, vector"
vector 91  PacketBounce.etherSwitch2.eth[1].queue.dataQueue  queueLength:vector  ETV
attr interpolationmode  sample-hold
attr title  "queue length, vector"
vector 106  PacketBounce.etherSwitch3.eth[0].queue.pauseQueue  queueLength:vector  ETV
attr interpolationmode  sample-hold
attr title  "queue length, vector"
vector 110  PacketBounce.etherSwitch3.eth[0].queue.passBackQueue  queueLength:vector  ETV
attr interpolationmode  sample-hold
attr title  "queue length, vector"
vector 114  PacketBounce.etherSwitch3.eth[0].queue.dataQueue  queueLength:vector  ETV
attr interpolationmode  sample-hold
attr title  "queue length, vector"
vector 129  PacketBounce.etherSwitch3.eth[1].queue.pauseQueue  queueLength:vector  ETV
attr interpolationmode  sample-hold
attr title  "queue length, vector"
vector 133  PacketBounce.etherSwitch3.eth[1].queue.passBackQueue  queueLength:vector  ETV
attr interpolationmode  sample-hold
attr title  "queue length, vector"
vector 137  PacketBounce.etherSwitch3.eth[1].queue.dataQueue  queueLength:vector  ETV
attr interpolationmode  sample-hold
attr title  "queue length, vector"
vector 152  PacketBounce.etherSwitch4.eth[0].queue.pauseQueue  queueLength:vector  ETV
attr interpolationmode  sample-hold
attr title  "queue length, vector"
vector 156  PacketBounce.etherSwitch4.eth[0].queue.passBackQueue  queueLength:vector  ETV
attr interpolationmode  sample-hold
attr title  "queue length, vector"
vector 160  PacketBounce.etherSwitch4.eth[0].queue.dataQueue  queueLength:vector  ETV
attr interpolationmode  sample-hold
attr title  "queue length, vector"
vector 175  PacketBounce.etherSwitch4.eth[1].queue.pauseQueue  queueLength:vector  ETV
attr interpolationmode  sample-hold
attr title  "queue length, vector"
vector 179  PacketBounce.etherSwitch4.eth[1].queue.passBackQueue  queueLength:vector  ETV
attr interpolationmode  sample-hold
attr title  "queue length, vector"
vector 183  PacketBounce.etherSwitch4.eth[1].queue.dataQueue  queueLength:vector  ETV
attr interpolationmode  sample-hold
attr title  "queue length, vector"
vector 198  PacketBounce.etherSwitch5.eth[0].queue.pauseQueue  queueLength:vector  ETV
attr interpolationmode  sample-hold
attr title  "queue length, vector"
vector 202  PacketBounce.etherSwitch5.eth[0].queue.passBackQueue  queueLength:vector  ETV
attr interpolationmode  sample-hold
attr title  "queue length, vector"
vector 206  PacketBounce.etherSwitch5.eth[0].queue.dataQueue  queueLength:vector  ETV
attr interpolationmode  sample-hold
attr title  "queue length, vector"
vector 221  PacketBounce.etherSwitch5.eth[1].queue.pauseQueue  queueLength:vector  ETV
attr interpolationmode  sample-hold
attr title  "queue length, vector"
vector 225  PacketBounce.etherSwitch5.eth[1].queue.passBackQueue  queueLength:vector  ETV
attr interpolationmode  sample-hold
attr title  "queue length, vector"
vector 229  PacketBounce.etherSwitch5.eth[1].queue.dataQueue  queueLength:vector  ETV
attr interpolationmode  sample-hold
attr title  "queue length, vector"
vector 244  PacketBounce.etherSwitch6.eth[0].queue.pauseQueue  queueLength:vector  ETV
attr interpolationmode  sample-hold
attr title  "queue length, vector"
vector 248  PacketBounce.etherSwitch6.eth[0].queue.passBackQueue  queueLength:vector  ETV
attr interpolationmode  sample-hold
attr title  "queue length, vector"
vector 252  PacketBounce.etherSwitch6.eth[0].queue.dataQueue  queueLength:vector  ETV
attr interpolationmode  sample-hold
attr title  "queue length, vector"
vector 267  PacketBounce.etherSwitch6.eth[1].queue.pauseQueue  queueLength:vector  ETV
attr interpolationmode  sample-hold
attr title  "queue length, vector"
vector 271  PacketBounce.etherSwitch6.eth[1].queue.passBackQueue  queueLength:vector  ETV
attr interpolationmode  sample-hold
attr title  "queue length, vector"
vector 275  PacketBounce.etherSwitch6.eth[1].queue.dataQueue  queueLength:vector  ETV
attr interpolationmode  sample-hold
attr title  "queue length, vector"
vector 290  PacketBounce.etherSwitch7.eth[0].queue.pauseQueue  queueLength:vector  ETV
attr interpolationmode  sample-hold
attr title  "queue length, vector"
vector 294  PacketBounce.etherSwitch7.eth[0].queue.passBackQueue  queueLength:vector  ETV
attr interpolationmode  sample-hold
attr title  "queue length, vector"
vector 298  PacketBounce.etherSwitch7.eth[0].queue.dataQueue  queueLength:vector  ETV
attr interpolationmode  sample-hold
attr title  "queue length, vector"
vector 313  PacketBounce.etherSwitch7.eth[1].queue.pauseQueue  queueLength:vector  ETV
attr interpolationmode  sample-hold
attr title  "queue length, vector"
vector 317  PacketBounce.etherSwitch7.eth[1].queue.passBackQueue  queueLength:vector  ETV
attr interpolationmode  sample-hold
attr title  "queue length, vector"
vector 321  PacketBounce.etherSwitch7.eth[1].queue.dataQueue  queueLength:vector  ETV
attr interpolationmode  sample-hold
attr title  "queue length, vector"
vector 336  PacketBounce.etherSwitch7.eth[2].queue.pauseQueue  queueLength:vector  ETV
attr interpolationmode  sample-hold
attr title  "queue length, vector"
vector 340  PacketBounce.etherSwitch7.eth[2].queue.passBackQueue  queueLength:vector  ETV
attr interpolationmode  sample-hold
attr title  "queue length, vector"
vector 344  PacketBounce.etherSwitch7.eth[2].queue.dataQueue  queueLength:vector  ETV
attr interpolationmode  sample-hold
attr title  "queue length, vector"
vector 359  PacketBounce.etherSwitch7.eth[3].queue.pauseQueue  queueLength:vector  ETV
attr interpolationmode  sample-hold
attr title  "queue length, vector"
vector 363  PacketBounce.etherSwitch7.eth[3].queue.passBackQueue  queueLength:vector  ETV
attr interpolationmode  sample-hold
attr title  "queue length, vector"
vector 367  PacketBounce.etherSwitch7.eth[3].queue.dataQueue  queueLength:vector  ETV
attr interpolationmode  sample-hold
attr title  "queue length, vector"
vector 388  PacketBounce.sender1.queue.pauseQueue  queueLength:vector  ETV
attr interpolationmode  sample-hold
attr title  "queue length, vector"
vector 392  PacketBounce.sender1.queue.passBackQueue  queueLength:vector  ETV
attr interpolationmode  sample-hold
attr title  "queue length, vector"
vector 396  PacketBounce.sender1.queue.dataQueue  queueLength:vector  ETV
attr interpolationmode  sample-hold
attr title  "queue length, vector"
vector 417  PacketBounce.sender2.queue.pauseQueue  queueLength:vector  ETV
attr interpolationmode  sample-hold
attr title  "queue length, vector"
vector 421  PacketBounce.sender2.queue.passBackQueue  queueLength:vector  ETV
attr interpolationmode  sample-hold
attr title  "queue length, vector"
vector 425  PacketBounce.sender2.queue.dataQueue  queueLength:vector  ETV
attr interpolationmode  sample-hold
attr title  "queue length, vector"
vector 446  PacketBounce.sender3.queue.pauseQueue  queueLength:vector  ETV
attr interpolationmode  sample-hold
attr title  "queue length, vector"
vector 450  PacketBounce.sender3.queue.passBackQueue  queueLength:vector  ETV
attr interpolationmode  sample-hold
attr title  "queue length, vector"
vector 454  PacketBounce.sender3.queue.dataQueue  queueLength:vector  ETV
attr interpolationmode  sample-hold
attr title  "queue length, vector"
vector 475  PacketBounce.receiver.queue.pauseQueue  queueLength:vector  ETV
attr interpolationmode  sample-hold
attr title  "queue length, vector"
vector 479  PacketBounce.receiver.queue.passBackQueue  queueLength:vector  ETV
attr interpolationmode  sample-hold
attr title  "queue length, vector"
vector 483  PacketBounce.receiver.queue.dataQueue  queueLength:vector  ETV
attr interpolationmode  sample-hold
attr title  "queue length, vector"
vector 369  PacketBounce.sender1.app  sentPk:vector(packetBytes)  ETV
attr interpolationmode  none
attr source  sentPk
attr title  "packets sent, vector(packetBytes)"
vector 398  PacketBounce.sender2.app  sentPk:vector(packetBytes)  ETV
attr interpolationmode  none
attr source  sentPk
attr title  "packets sent, vector(packetBytes)"
vector 427  PacketBounce.sender3.app  sentPk:vector(packetBytes)  ETV
attr interpolationmode  none
attr source  sentPk
attr title  "packets sent, vector(packetBytes)"
vector 371  PacketBounce.sender1.encap  encapPk:vector(packetBytes)  ETV
attr interpolationmode  none
attr source  encapPk
attr title  "packets encapsulated, vector(packetBytes)"
vector 400  PacketBounce.sender2.encap  encapPk:vector(packetBytes)  ETV
attr interpolationmode  none
attr source  encapPk
attr title  "packets encapsulated, vector(packetBytes)"
vector 429  PacketBounce.sender3.encap  encapPk:vector(packetBytes)  ETV
attr interpolationmode  none
attr source  encapPk
attr title  "packets encapsulated, vector(packetBytes)"
vector 393  PacketBounce.sender1.queue.dataQueue  rcvdPk:vector(packetBytes)  ETV
attr interpolationmode  none
attr title  "received packets, vector(packetBytes)"
vector 395  PacketBounce.sender1.queue.dataQueue  queueingTime:vector  ETV
attr interpolationmode  none
attr title  "queueing time, vector"
vector 422  PacketBounce.sender2.queue.dataQueue  rcvdPk:vector(packetBytes)  ETV
attr interpolationmode  none
attr title  "received packets, vector(packetBytes)"
vector 424  PacketBounce.sender2.queue.dataQueue  queueingTime:vector  ETV
attr interpolationmode  none
attr title  "queueing time, vector"
vector 451  PacketBounce.sender3.queue.dataQueue  rcvdPk:vector(packetBytes)  ETV
attr interpolationmode  none
attr title  "received packets, vector(packetBytes)"
vector 453  PacketBounce.sender3.queue.dataQueue  queueingTime:vector  ETV
attr interpolationmode  none
attr title  "queueing time, vector"
vector 379  PacketBounce.sender1.mac  rxPkFromHL:vector(packetBytes)  ETV
attr interpolationmode  none
attr source  rxPkFromHL
attr title  "packet bytes from higher layer, vector(packetBytes)"
vector 408  PacketBounce.sender2.mac  rxPkFromHL:vector(packetBytes)  ETV
attr interpolationmode  none
attr source  rxPkFromHL
attr title  "packet bytes from higher layer, vector(packetBytes)"
vector 437  PacketBounce.sender3.mac  rxPkFromHL:vector(packetBytes)  ETV
attr interpolationmode  none
attr source  rxPkFromHL
attr title  "packet bytes from higher layer, vector(packetBytes)"
vector 374  PacketBounce.sender1.mac  txPk:vector(packetBytes)  ETV
attr interpolationmode  none
attr source  txPk
attr title  "packets transmitted, vector(packetBytes)"
vector 403  PacketBounce.sender2.mac  txPk:vector(packetBytes)  ETV
attr interpolationmode  none
attr source  txPk
attr title  "packets transmitted, vector(packetBytes)"
vector 432  PacketBounce.sender3.mac  txPk:vector(packetBytes)  ETV
attr interpolationmode  none
attr source  txPk
attr title  "packets transmitted, vector(packetBytes)"
vector 1  PacketBounce.etherSwitch1.eth[0].mac  rxPkOk:vector(packetBytes)  ETV
attr interpolationmode  none
attr source  rxPkOk
attr title  "packets received OK, vector(packetBytes)"
vector 2  PacketBounce.etherSwitch1.eth[0].mac  passedUpPk:vector(packetBytes)  ETV
attr interpolationmode  none
attr source  packetSentToUpper
attr title  "packets passed to higher layer, vector(packetBytes)"
vector 47  PacketBounce.etherSwitch2.eth[0].mac  rxPkOk:vector(packetBytes)  ETV
attr interpolationmode  none
attr source  rxPkOk
attr title  "packets received OK, vector(packetBytes)"
vector 48  PacketBounce.etherSwitch2.eth[0].mac  passedUpPk:vector(packetBytes)  ETV
attr interpolationmode  none
attr source  packetSentToUpper
attr title  "packets passed to higher layer, vector(packetBytes)"
vector 93  PacketBounce.etherSwitch3.eth[0].mac  rxPkOk:vector(packetBytes)  ETV
attr interpolationmode  none
attr source  rxPkOk
attr title  "packets received OK, vector(packetBytes)"
vector 94  PacketBounce.etherSwitch3.eth[0].mac  passedUpPk:vector(packetBytes)  ETV
attr interpolationmode  none
attr source  packetSentToUpper
attr title  "packets passed to higher layer, vector(packetBytes)"
vector 42  PacketBounce.etherSwitch1.eth[1].queue.dataQueue  rcvdPk:vector(packetBytes)  ETV
attr interpolationmode  none
attr title  "received packets, vector(packetBytes)"
vector 44  PacketBounce.etherSwitch1.eth[1].queue.dataQueue  queueingTime:vector  ETV
attr interpolationmode  none
attr title  "queueing time, vector"
vector 88  PacketBounce.etherSwitch2.eth[1].queue.dataQueue  rcvdPk:vector(packetBytes)  ETV
attr interpolationmode  none
attr title  "received packets, vector(packetBytes)"
vector 90  PacketBounce.etherSwitch2.eth[1].queue.dataQueue  queueingTime:vector  ETV
attr interpolationmode  none
attr title  "queueing time, vector"
vector 134  PacketBounce.etherSwitch3.eth[1].queue.dataQueue  rcvdPk:vector(packetBytes)  ETV
attr interpolationmode  none
attr title  "received packets, vector(packetBytes)"
vector 136  PacketBounce.etherSwitch3.eth[1].queue.dataQueue  queueingTime:vector  ETV
attr interpolationmode  none
attr title  "queueing time, vector"
vector 28  PacketBounce.etherSwitch1.eth[1].mac  rxPkFromHL:vector(packetBytes)  ETV
attr interpolationmode  none
attr source  rxPkFromHL
attr title  "packet bytes from higher layer, vector(packetBytes)"
vector 74  PacketBounce.etherSwitch2.eth[1].mac  rxPkFromHL:vector(packetBytes)  ETV
attr interpolationmode  none
attr source  rxPkFromHL
attr title  "packet bytes from higher layer, vector(packetBytes)"
vector 120  PacketBounce.etherSwitch3.eth[1].mac  rxPkFromHL:vector(packetBytes)  ETV
attr interpolationmode  none
attr source  rxPkFromHL
attr title  "packet bytes from higher layer, vector(packetBytes)"
vector 23  PacketBounce.etherSwitch1.eth[1].mac  txPk:vector(packetBytes)  ETV
attr interpolationmode  none
attr source  txPk
attr title  "packets transmitted, vector(packetBytes)"
vector 69  PacketBounce.etherSwitch2.eth[1].mac  txPk:vector(packetBytes)  ETV
attr interpolationmode  none
attr source  txPk
attr title  "packets transmitted, vector(packetBytes)"
vector 115  PacketBounce.etherSwitch3.eth[1].mac  txPk:vector(packetBytes)  ETV
attr interpolationmode  none
attr source  txPk
attr title  "packets transmitted, vector(packetBytes)"
vector 139  PacketBounce.etherSwitch4.eth[0].mac  rxPkOk:vector(packetBytes)  ETV
attr interpolationmode  none
attr source  rxPkOk
attr title  "packets received OK, vector(packetBytes)"
vector 140  PacketBounce.etherSwitch4.eth[0].mac  passedUpPk:vector(packetBytes)  ETV
attr interpolationmode  none
attr source  packetSentToUpper
attr title  "packets passed to higher layer, vector(packetBytes)"
vector 185  PacketBounce.etherSwitch5.eth[0].mac  rxPkOk:vector(packetBytes)  ETV
attr interpolationmode  none
attr source  rxPkOk
attr title  "packets received OK, vector(packetBytes)"
vector 186  PacketBounce.etherSwitch5.eth[0].mac  passedUpPk:vector(packetBytes)  ETV
attr interpolationmode  none
attr source  packetSentToUpper
attr title  "packets passed to higher layer, vector(packetBytes)"
vector 231  PacketBounce.etherSwitch6.eth[0].mac  rxPkOk:vector(packetBytes)  ETV
attr interpolationmode  none
attr source  rxPkOk
attr title  "packets received OK, vector(packetBytes)"
vector 232  PacketBounce.etherSwitch6.eth[0].mac  passedUpPk:vector(packetBytes)  ETV
attr interpolationmode  none
attr source  packetSentToUpper
attr title  "packets passed to higher layer, vector(packetBytes)"
vector 180  PacketBounce.etherSwitch4.eth[1].queue.dataQueue  rcvdPk:vector(packetBytes)  ETV
attr interpolationmode  none
attr title  "received packets, vector(packetBytes)"
vector 182  PacketBounce.etherSwitch4.eth[1].queue.dataQueue  queueingTime:vector  ETV
attr interpolationmode  none
attr title  "queueing time, vector"
vector 226  PacketBounce.etherSwitch5.eth[1].queue.dataQueue  rcvdPk:vector(packetBytes)  ETV
attr interpolationmode  none
attr title  "received packets, vector(packetBytes)"
vector 228  PacketBounce.etherSwitch5.eth[1].queue.dataQueue  queueingTime:vector  ETV
attr interpolationmode  none
attr title  "queueing time, vector"
vector 272  PacketBounce.etherSwitch6.eth[1].queue.dataQueue  rcvdPk:vector(packetBytes)  ETV
attr interpolationmode  none
attr title  "received packets, vector(packetBytes)"
vector 274  PacketBounce.etherSwitch6.eth[1].queue.dataQueue  queueingTime:vector  ETV
attr interpolationmode  none
attr title  "queueing time, vector"
vector 166  PacketBounce.etherSwitch4.eth[1].mac  rxPkFromHL:vector(packetBytes)  ETV
attr interpolationmode  none
attr source  rxPkFromHL
attr title  "packet bytes from higher layer, vector(packetBytes)"
vector 212  PacketBounce.etherSwitch5.eth[1].mac  rxPkFromHL:vector(packetBytes)  ETV
attr interpolationmode  none
attr source  rxPkFromHL
attr title  "packet bytes from higher layer, vector(packetBytes)"
vector 258  PacketBounce.etherSwitch6.eth[1].mac  rxPkFromHL:vector(packetBytes)  ETV
attr interpolationmode  none
attr source  rxPkFromHL
attr title  "packet bytes from higher layer, vector(packetBytes)"
vector 161  PacketBounce.etherSwitch4.eth[1].mac  txPk:vector(packetBytes)  ETV
attr interpolationmode  none
attr source  txPk
attr title  "packets transmitted, vector(packetBytes)"
vector 207  PacketBounce.etherSwitch5.eth[1].mac  txPk:vector(packetBytes)  ETV
attr interpolationmode  none
attr source  txPk
attr title  "packets transmitted, vector(packetBytes)"
vector 253  PacketBounce.etherSwitch6.eth[1].mac  txPk:vector(packetBytes)  ETV
attr interpolationmode  none
attr source  txPk
attr title  "packets transmitted, vector(packetBytes)"
vector 277  PacketBounce.etherSwitch7.eth[0].mac  rxPkOk:vector(packetBytes)  ETV
attr interpolationmode  none
attr source  rxPkOk
attr title  "packets received OK, vector(packetBytes)"
vector 278  PacketBounce.etherSwitch7.eth[0].mac  passedUpPk:vector(packetBytes)  ETV
attr interpolationmode  none
attr source  packetSentToUpper
attr title  "packets passed to higher layer, vector(packetBytes)"
vector 300  PacketBounce.etherSwitch7.eth[1].mac  rxPkOk:vector(packetBytes)  ETV
attr interpolationmode  none
attr source  rxPkOk
attr title  "packets received OK, vector(packetBytes)"
vector 301  PacketBounce.etherSwitch7.eth[1].mac  passedUpPk:vector(packetBytes)  ETV
attr interpolationmode  none
attr source  packetSentToUpper
attr title  "packets passed to higher layer, vector(packetBytes)"
vector 323  PacketBounce.etherSwitch7.eth[2].mac  rxPkOk:vector(packetBytes)  ETV
attr interpolationmode  none
attr source  rxPkOk
attr title  "packets received OK, vector(packetBytes)"
vector 324  PacketBounce.etherSwitch7.eth[2].mac  passedUpPk:vector(packetBytes)  ETV
attr interpolationmode  none
attr source  packetSentToUpper
attr title  "packets passed to higher layer, vector(packetBytes)"
vector 364  PacketBounce.etherSwitch7.eth[3].queue.dataQueue  rcvdPk:vector(packetBytes)  ETV
attr interpolationmode  none
attr title  "received packets, vector(packetBytes)"
vector 366  PacketBounce.etherSwitch7.eth[3].queue.dataQueue  queueingTime:vector  ETV
attr interpolationmode  none
attr title  "queueing time, vector"
vector 350  PacketBounce.etherSwitch7.eth[3].mac  rxPkFromHL:vector(packetBytes)  ETV
attr interpolationmode  none
attr source  rxPkFromHL
attr title  "packet bytes from higher layer, vector(packetBytes)"
vector 345  PacketBounce.etherSwitch7.eth[3].mac  txPk:vector(packetBytes)  ETV
attr interpolationmode  none
attr source  txPk
attr title  "packets transmitted, vector(packetBytes)"
vector 462  PacketBounce.receiver.mac  rxPkOk:vector(packetBytes)  ETV
attr interpolationmode  none
attr source  rxPkOk
attr title  "packets received OK, vector(packetBytes)"
vector 463  PacketBounce.receiver.mac  passedUpPk:vector(packetBytes)  ETV
attr interpolationmode  none
attr source  packetSentToUpper
attr title  "packets passed to higher layer, vector(packetBytes)"
vector 459  PacketBounce.receiver.encap  decapPk:vector(packetBytes)  ETV
attr interpolationmode  none
attr source  decapPk
attr title  "packets decapsulated, vector(packetBytes)"
vector 455  PacketBounce.receiver.app  rcvdPk:vector(packetBytes)  ETV
attr interpolationmode  none
attr source  rcvdPk
attr title  "packets received, vector(packetBytes)"
vector 457  PacketBounce.receiver.app  endToEndDelay:vector  ETV
attr interpolationmode  none
attr source  messageAge(rcvdPk)
attr title  "end-to-end delay, vector"
attr unit  s
vector 337  PacketBounce.etherSwitch7.eth[2].queue.passBackQueue  rcvdPk:vector(packetBytes)  ETV
attr interpolationmode  none
attr title  "received packets, vector(packetBytes)"
vector 339  PacketBounce.etherSwitch7.eth[2].queue.passBackQueue  queueingTime:vector  ETV
attr interpolationmode  none
attr title  "queueing time, vector"
vector 327  PacketBounce.etherSwitch7.eth[2].mac  rxPkFromHL:vector(packetBytes)  ETV
attr interpolationmode  none
attr source  rxPkFromHL
attr title  "packet bytes from higher layer, vector(packetBytes)"
vector 322  PacketBounce.etherSwitch7.eth[2].mac  txPk:vector(packetBytes)  ETV
attr interpolationmode  none
attr source  txPk
attr title  "packets transmitted, vector(packetBytes)"
vector 254  PacketBounce.etherSwitch6.eth[1].mac  rxPkOk:vector(packetBytes)  ETV
attr interpolationmode  none
attr source  rxPkOk
attr title  "packets received OK, vector(packetBytes)"
vector 255  PacketBounce.etherSwitch6.eth[1].mac  passedUpPk:vector(packetBytes)  ETV
attr interpolationmode  none
attr source  packetSentToUpper
attr title  "packets passed to higher layer, vector(packetBytes)"
vector 268  PacketBounce.etherSwitch6.eth[1].queue.passBackQueue  rcvdPk:vector(packetBytes)  ETV
attr interpolationmode  none
attr title  "received packets, vector(packetBytes)"
vector 270  PacketBounce.etherSwitch6.eth[1].queue.passBackQueue  queueingTime:vector  ETV
attr interpolationmode  none
attr title  "queueing time, vector"
vector 360  PacketBounce.etherSwitch7.eth[3].queue.passBackQueue  rcvdPk:vector(packetBytes)  ETV
attr interpolationmode  none
attr title  "received packets, vector(packetBytes)"
vector 362  PacketBounce.etherSwitch7.eth[3].queue.passBackQueue  queueingTime:vector  ETV
attr interpolationmode  none
attr title  "queueing time, vector"
vector 291  PacketBounce.etherSwitch7.eth[0].queue.passBackQueue  rcvdPk:vector(packetBytes)  ETV
attr interpolationmode  none
attr title  "received packets, vector(packetBytes)"
vector 293  PacketBounce.etherSwitch7.eth[0].queue.passBackQueue  queueingTime:vector  ETV
attr interpolationmode  none
attr title  "queueing time, vector"
vector 281  PacketBounce.etherSwitch7.eth[0].mac  rxPkFromHL:vector(packetBytes)  ETV
attr interpolationmode  none
attr source  rxPkFromHL
attr title  "packet bytes from higher layer, vector(packetBytes)"
vector 276  PacketBounce.etherSwitch7.eth[0].mac  txPk:vector(packetBytes)  ETV
attr interpolationmode  none
attr source  txPk
attr title  "packets transmitted, vector(packetBytes)"
vector 162  PacketBounce.etherSwitch4.eth[1].mac  rxPkOk:vector(packetBytes)  ETV
attr interpolationmode  none
attr source  rxPkOk
attr title  "packets received OK, vector(packetBytes)"
vector 163  PacketBounce.etherSwitch4.eth[1].mac  passedUpPk:vector(packetBytes)  ETV
attr interpolationmode  none
attr source  packetSentToUpper
attr title  "packets passed to higher layer, vector(packetBytes)"
vector 176  PacketBounce.etherSwitch4.eth[1].queue.passBackQueue  rcvdPk:vector(packetBytes)  ETV
attr interpolationmode  none
attr title  "received packets, vector(packetBytes)"
vector 178  PacketBounce.etherSwitch4.eth[1].queue.passBackQueue  queueingTime:vector  ETV
attr interpolationmode  none
attr title  "queueing time, vector"
vector 314  PacketBounce.etherSwitch7.eth[1].queue.passBackQueue  rcvdPk:vector(packetBytes)  ETV
attr interpolationmode  none
attr title  "received packets, vector(packetBytes)"
vector 316  PacketBounce.etherSwitch7.eth[1].queue.passBackQueue  queueingTime:vector  ETV
attr interpolationmode  none
attr title  "queueing time, vector"
vector 304  PacketBounce.etherSwitch7.eth[1].mac  rxPkFromHL:vector(packetBytes)  ETV
attr interpolationmode  none
attr source  rxPkFromHL
attr title  "packet bytes from higher layer, vector(packetBytes)"
vector 299  PacketBounce.etherSwitch7.eth[1].mac  txPk:vector(packetBytes)  ETV
attr interpolationmode  none
attr source  txPk
attr title  "packets transmitted, vector(packetBytes)"
vector 208  PacketBounce.etherSwitch5.eth[1].mac  rxPkOk:vector(packetBytes)  ETV
attr interpolationmode  none
attr source  rxPkOk
attr title  "packets received OK, vector(packetBytes)"
vector 209  PacketBounce.etherSwitch5.eth[1].mac  passedUpPk:vector(packetBytes)  ETV
attr interpolationmode  none
attr source  packetSentToUpper
attr title  "packets passed to higher layer, vector(packetBytes)"
vector 222  PacketBounce.etherSwitch5.eth[1].queue.passBackQueue  rcvdPk:vector(packetBytes)  ETV
attr interpolationmode  none
attr title  "received packets, vector(packetBytes)"
vector 224  PacketBounce.etherSwitch5.eth[1].queue.passBackQueue  queueingTime:vector  ETV
attr interpolationmode  none
attr title  "queueing time, vector"
1	26941 63849 43 375840 0.000012258 0.826164258 2505 1518 1518 3802590 5772331620
2	90790 63849 43 375840 0.000012258 0.826164258 2505 1518 1518 3802590 5772331620
14	154639 9 0 0 0 0 1 0 0 0 0
18	154648 9 0 0 0 0 1 0 0 0 0
22	154657 9 0 0 0 0 1 0 0 0 0
23	154666 66354 85 375896 0.000024466 0.826176466 2505 1518 1518 3802590 5772331620
28	221020 66354 58 375858 0.000012258 0.826164258 2505 1518 1518 3802590 5772331620
37	287374 9 0 0 0 0 1 0 0 0 0
41	287383 9 0 0 0 0 1 0 0 0 0
42	287392 66354 52 375852 0.000012258 0.826164258 2505 1518 1518 3802590 5772331620
44	353746 58839 52 375852 0.000012258 0.826164258 2505 0 0 0 0
45	412585 117687 0 375852 0 0.826164258 5011 0 1 2505 2505
47	530272 66354 44 375841 0.000012258 0.826164258 2505 1518 1518 3802590 5772331620
48	596626 66354 44 375841 0.000012258 0.826164258 2505 1518 1518 3802590 5772331620
60	662980 9 0 0 0 0 1 0 0 0 0
64	662989 9 0 0 0 0 1 0 0 0 0
68	662998 9 0 0 0 0 1 0 0 0 0
69	663007 66354 86 375897 0.000024466 0.826176466 2505 1518 1518 3802590 5772331620
74	729361 66354 59 375859 0.000012258 0.826164258 2505 1518 1518 3802590 5772331620
83	795715 9 0 0 0 0 1 0 0 0 0
87	795724 9 0 0 0 0 1 0 0 0 0
88	795733 66354 53 375853 0.000012258 0.826164258 2505 1518 1518 3802590 5772331620
90	862087 58839 53 375853 0.000012258 0.826164258 2505 0 0 0 0
91	920926 117687 0 375853 0 0.826164258 5011 0 1 2505 2505
93	1038613 66354 45 375842 0.000012258 0.826164258 2505 1518 1518 3802590 5772331620
94	1104967 66354 45 375842 0.000012258 0.826164258 2505 1518 1518 3802590 5772331620
106	1171321 10 0 0 0 0 1 0 0 0 0
110	1171331 10 0 0 0 0 1 0 0 0 0
114	1171341 10 0 0 0 0 1 0 0 0 0
115	1171351 68859 87 375898 0.000024466 0.826176466 2505 1518 1518 3802590 5772331620
120	1240210 68859 60 375860 0.000012258 0.826164258 2505 1518 1518 3802590 5772331620
129	1309069 10 0 0 0 0 1 0 0 0 0
133	1309079 10 0 0 0 0 1 0 0 0 0
134	1309089 68859 54 375854 0.000012258 0.826164258 2505 1518 1518 3802590 5772331620
136	1377948 61344 54 375854 0.000012258 0.826164258 2505 0 0 0 0
137	1439292 122698 0 375854 0 0.826164258 5011 0 1 2505 2505
139	1561990 68760 97 375916 0.000024516 0.826176516 2505 1518 1518 3802590 5772331620
140	1630750 68760 97 375916 0.000024516 0.826176516 2505 1518 1518 3802590 5772331620
152	1699510 10 0 0 0 0 1 0 0 0 0
156	1699520 10 0 0 0 0 1 0 0 0 0
160	1699530 10 0 0 0 0 1 0 0 0 0
161	1699540 105886 166 389343 0.000036724 0.829412472 3852 1518 1518 5847336 8876256048
162	1805426 37104 19688 389298 0.002140808 0.829400168 1347 1518 1518 2044746 3103924428
163	1842530 37104 19688 389298 0.002140808 0.829400168 1347 1518 1518 2044746 3103924428
166	1879634 105879 112 389308 0.000024516 0.829400168 3852 1518 1518 5847336 8876256048
175	1985513 10 0 0 0 0 1 0 0 0 0
176	1985523 37104 19693 389306 0.002140808 0.829400168 1347 1518 1518 2044746 3103924428
178	2022627 45130 19752 389306 0.002153012 0.829400168 1347 0 1.2204e-05 0.01635336 1.9957640544e-07